# LAMMPS data 
        1536 atoms
2 atom types
          0.00000000         24.76926000   xlo xhi
          0.00000000         24.76926000   ylo yhi
          0.00000000         24.76926000   zlo zhi
 
Atoms # metal
 
    1  1          9.25545327          0.27562174          7.98873221
    2  1          8.96100726         11.25748273          4.33493694
    3  1          2.09635948          6.63600795          9.81174941
    4  1          1.05303718          0.30103613          2.30015369
    5  1          6.56486390          9.01345844         11.27920918
    6  1          0.75275010          6.78588141         11.94054451
    7  1         11.58336794          6.02568137          5.68473240
    8  1          1.17474149          1.08693167         10.80575706
    9  1          1.03432091          7.53371679          7.40956435
   10  1          5.97142455          9.12220022          7.38641400
   11  1          5.60050936         10.72254557          9.52666757
   12  1          0.80486394         10.31676436          8.75023568
   13  1          4.56147165         11.11353109          0.94646177
   14  1          4.11816272          7.19239297          2.50208524
   15  1         10.60850053          0.88120811          1.95870023
   16  1          6.15957427          9.14817932          4.46929607
   17  1          8.14987667          6.54802335          5.30270879
   18  1          3.18134557          9.60998803          3.20231016
   19  1          7.99811272          1.31313119          3.30323332
   20  1          0.99328905         10.67025487          4.29494133
   21  1          2.14006752         10.50822207          6.40649557
   22  1          9.22282710         11.00880088          1.03823145
   23  1          5.26217253          1.04666313          2.37431040
   24  1          7.12853490          0.63835769          0.07813677
   25  1         10.36514258          5.23742378          7.94491348
   26  1          6.67496919          3.33446481          9.12080270
   27  1          4.38025961          3.69883482          1.06169211
   28  1          8.68016717          3.45497069          1.63559253
   29  1          3.95977321          2.76734315         11.09857442
   30  1          8.76772538          8.99646172          9.02247729
   31  1          6.66468755          9.94682406          1.87543161
   32  1         11.37151695          0.79019657          4.83593517
   33  1          7.43907163          0.53963556          9.79479533
   34  1         11.90675776          0.39667450          8.29281836
   35  1          4.55322630          5.34161432         10.06685863
   36  1          3.77327954          0.02310608          5.64861032
   37  1          9.27319614          9.48253213          6.36500518
   38  1          2.00877106          5.94451920          4.35541181
   39  1          2.81153975          1.95801534          2.90131299
   40  1         10.03979550          1.47462124         11.60542117
   41  1          5.55863752          6.33843637          7.77637081
   42  1         11.62676945          3.89029897          3.90398032
   43  1         10.36916968         10.88230128         10.97664256
   44  1          4.95137882          2.10397855          7.45152248
   45  1          8.11226869          6.31538660          2.32855038
   46  1          3.50884941          0.13544863         10.08024841
   47  1         11.11146233          7.35487282          9.31840523
   48  1          1.22336149         11.10890329         12.00475654
   49  1          6.82652941          4.43006932         11.94013669
   50  1          5.06075276          6.81762155         12.17980372
   51  1          1.55208110          3.23711666          5.19357498
   52  1          2.16148403          5.05832906          1.56571769
   53  1          3.64362234          7.55256042          6.29098882
   54  1          1.78979057          1.84883034          7.66058738
   55  1         11.49392913          8.90925320          4.70472470
   56  1          0.88441155          2.84413290          0.64311552
   57  1         11.25366646          4.39740556          1.05857050
   58  1          3.16520789          9.62270677         10.63400851
   59  1          9.93404465          8.39777412          2.48312734
   60  1         11.65523846          9.10215465          0.37876525
   61  1          8.44548786          1.90286774          5.80722581
   62  1          7.97213486          4.40464775          7.04533574
   63  1         11.22643639          3.50577791          9.82287684
   64  1          1.37506252          3.74213302          9.78275341
   65  1          9.25545327          0.27562174         20.37336221
   66  1          8.96100726         11.25748273         16.71956694
   67  1          2.09635948          6.63600795         22.19637941
   68  1          1.05303718          0.30103613         14.68478369
   69  1          6.56486390          9.01345844         23.66383918
   70  1          0.75275010          6.78588141         24.32517451
   71  1         11.58336794          6.02568137         18.06936240
   72  1          1.17474149          1.08693167         23.19038706
   73  1          1.03432091          7.53371679         19.79419435
   74  1          5.97142455          9.12220022         19.77104400
   75  1          5.60050936         10.72254557         21.91129757
   76  1          0.80486394         10.31676436         21.13486568
   77  1          4.56147165         11.11353109         13.33109177
   78  1          4.11816272          7.19239297         14.88671524
   79  1         10.60850053          0.88120811         14.34333023
   80  1          6.15957427          9.14817932         16.85392607
   81  1          8.14987667          6.54802335         17.68733879
   82  1          3.18134557          9.60998803         15.58694016
   83  1          7.99811272          1.31313119         15.68786332
   84  1          0.99328905         10.67025487         16.67957133
   85  1          2.14006752         10.50822207         18.79112557
   86  1          9.22282710         11.00880088         13.42286145
   87  1          5.26217253          1.04666313         14.75894040
   88  1          7.12853490          0.63835769         12.46276677
   89  1         10.36514258          5.23742378         20.32954348
   90  1          6.67496919          3.33446481         21.50543270
   91  1          4.38025961          3.69883482         13.44632211
   92  1          8.68016717          3.45497069         14.02022253
   93  1          3.95977321          2.76734315         23.48320442
   94  1          8.76772538          8.99646172         21.40710729
   95  1          6.66468755          9.94682406         14.26006161
   96  1         11.37151695          0.79019657         17.22056517
   97  1          7.43907163          0.53963556         22.17942533
   98  1         11.90675776          0.39667450         20.67744836
   99  1          4.55322630          5.34161432         22.45148863
  100  1          3.77327954          0.02310608         18.03324032
  101  1          9.27319614          9.48253213         18.74963518
  102  1          2.00877106          5.94451920         16.74004181
  103  1          2.81153975          1.95801534         15.28594299
  104  1         10.03979550          1.47462124         23.99005117
  105  1          5.55863752          6.33843637         20.16100081
  106  1         11.62676945          3.89029897         16.28861032
  107  1         10.36916968         10.88230128         23.36127256
  108  1          4.95137882          2.10397855         19.83615248
  109  1          8.11226869          6.31538660         14.71318038
  110  1          3.50884941          0.13544863         22.46487841
  111  1         11.11146233          7.35487282         21.70303523
  112  1          1.22336149         11.10890329         24.38938654
  113  1          6.82652941          4.43006932         24.32476669
  114  1          5.06075276          6.81762155         24.56443372
  115  1          1.55208110          3.23711666         17.57820498
  116  1          2.16148403          5.05832906         13.95034769
  117  1          3.64362234          7.55256042         18.67561882
  118  1          1.78979057          1.84883034         20.04521738
  119  1         11.49392913          8.90925320         17.08935470
  120  1          0.88441155          2.84413290         13.02774552
  121  1         11.25366646          4.39740556         13.44320050
  122  1          3.16520789          9.62270677         23.01863851
  123  1          9.93404465          8.39777412         14.86775734
  124  1         11.65523846          9.10215465         12.76339525
  125  1          8.44548786          1.90286774         18.19185581
  126  1          7.97213486          4.40464775         19.42996574
  127  1         11.22643639          3.50577791         22.20750684
  128  1          1.37506252          3.74213302         22.16738341
  129  1          9.25545327         12.66025174          7.98873221
  130  1          8.96100726         23.64211273          4.33493694
  131  1          2.09635948         19.02063795          9.81174941
  132  1          1.05303718         12.68566613          2.30015369
  133  1          6.56486390         21.39808844         11.27920918
  134  1          0.75275010         19.17051141         11.94054451
  135  1         11.58336794         18.41031137          5.68473240
  136  1          1.17474149         13.47156167         10.80575706
  137  1          1.03432091         19.91834679          7.40956435
  138  1          5.97142455         21.50683022          7.38641400
  139  1          5.60050936         23.10717557          9.52666757
  140  1          0.80486394         22.70139436          8.75023568
  141  1          4.56147165         23.49816109          0.94646177
  142  1          4.11816272         19.57702297          2.50208524
  143  1         10.60850053         13.26583811          1.95870023
  144  1          6.15957427         21.53280932          4.46929607
  145  1          8.14987667         18.93265335          5.30270879
  146  1          3.18134557         21.99461803          3.20231016
  147  1          7.99811272         13.69776119          3.30323332
  148  1          0.99328905         23.05488487          4.29494133
  149  1          2.14006752         22.89285207          6.40649557
  150  1          9.22282710         23.39343088          1.03823145
  151  1          5.26217253         13.43129313          2.37431040
  152  1          7.12853490         13.02298769          0.07813677
  153  1         10.36514258         17.62205378          7.94491348
  154  1          6.67496919         15.71909481          9.12080270
  155  1          4.38025961         16.08346482          1.06169211
  156  1          8.68016717         15.83960069          1.63559253
  157  1          3.95977321         15.15197315         11.09857442
  158  1          8.76772538         21.38109172          9.02247729
  159  1          6.66468755         22.33145406          1.87543161
  160  1         11.37151695         13.17482657          4.83593517
  161  1          7.43907163         12.92426556          9.79479533
  162  1         11.90675776         12.78130450          8.29281836
  163  1          4.55322630         17.72624432         10.06685863
  164  1          3.77327954         12.40773608          5.64861032
  165  1          9.27319614         21.86716213          6.36500518
  166  1          2.00877106         18.32914920          4.35541181
  167  1          2.81153975         14.34264534          2.90131299
  168  1         10.03979550         13.85925124         11.60542117
  169  1          5.55863752         18.72306637          7.77637081
  170  1         11.62676945         16.27492897          3.90398032
  171  1         10.36916968         23.26693128         10.97664256
  172  1          4.95137882         14.48860855          7.45152248
  173  1          8.11226869         18.70001660          2.32855038
  174  1          3.50884941         12.52007863         10.08024841
  175  1         11.11146233         19.73950282          9.31840523
  176  1          1.22336149         23.49353329         12.00475654
  177  1          6.82652941         16.81469932         11.94013669
  178  1          5.06075276         19.20225155         12.17980372
  179  1          1.55208110         15.62174666          5.19357498
  180  1          2.16148403         17.44295906          1.56571769
  181  1          3.64362234         19.93719042          6.29098882
  182  1          1.78979057         14.23346034          7.66058738
  183  1         11.49392913         21.29388320          4.70472470
  184  1          0.88441155         15.22876290          0.64311552
  185  1         11.25366646         16.78203556          1.05857050
  186  1          3.16520789         22.00733677         10.63400851
  187  1          9.93404465         20.78240412          2.48312734
  188  1         11.65523846         21.48678465          0.37876525
  189  1          8.44548786         14.28749774          5.80722581
  190  1          7.97213486         16.78927775          7.04533574
  191  1         11.22643639         15.89040791          9.82287684
  192  1          1.37506252         16.12676302          9.78275341
  193  1          9.25545327         12.66025174         20.37336221
  194  1          8.96100726         23.64211273         16.71956694
  195  1          2.09635948         19.02063795         22.19637941
  196  1          1.05303718         12.68566613         14.68478369
  197  1          6.56486390         21.39808844         23.66383918
  198  1          0.75275010         19.17051141         24.32517451
  199  1         11.58336794         18.41031137         18.06936240
  200  1          1.17474149         13.47156167         23.19038706
  201  1          1.03432091         19.91834679         19.79419435
  202  1          5.97142455         21.50683022         19.77104400
  203  1          5.60050936         23.10717557         21.91129757
  204  1          0.80486394         22.70139436         21.13486568
  205  1          4.56147165         23.49816109         13.33109177
  206  1          4.11816272         19.57702297         14.88671524
  207  1         10.60850053         13.26583811         14.34333023
  208  1          6.15957427         21.53280932         16.85392607
  209  1          8.14987667         18.93265335         17.68733879
  210  1          3.18134557         21.99461803         15.58694016
  211  1          7.99811272         13.69776119         15.68786332
  212  1          0.99328905         23.05488487         16.67957133
  213  1          2.14006752         22.89285207         18.79112557
  214  1          9.22282710         23.39343088         13.42286145
  215  1          5.26217253         13.43129313         14.75894040
  216  1          7.12853490         13.02298769         12.46276677
  217  1         10.36514258         17.62205378         20.32954348
  218  1          6.67496919         15.71909481         21.50543270
  219  1          4.38025961         16.08346482         13.44632211
  220  1          8.68016717         15.83960069         14.02022253
  221  1          3.95977321         15.15197315         23.48320442
  222  1          8.76772538         21.38109172         21.40710729
  223  1          6.66468755         22.33145406         14.26006161
  224  1         11.37151695         13.17482657         17.22056517
  225  1          7.43907163         12.92426556         22.17942533
  226  1         11.90675776         12.78130450         20.67744836
  227  1          4.55322630         17.72624432         22.45148863
  228  1          3.77327954         12.40773608         18.03324032
  229  1          9.27319614         21.86716213         18.74963518
  230  1          2.00877106         18.32914920         16.74004181
  231  1          2.81153975         14.34264534         15.28594299
  232  1         10.03979550         13.85925124         23.99005117
  233  1          5.55863752         18.72306637         20.16100081
  234  1         11.62676945         16.27492897         16.28861032
  235  1         10.36916968         23.26693128         23.36127256
  236  1          4.95137882         14.48860855         19.83615248
  237  1          8.11226869         18.70001660         14.71318038
  238  1          3.50884941         12.52007863         22.46487841
  239  1         11.11146233         19.73950282         21.70303523
  240  1          1.22336149         23.49353329         24.38938654
  241  1          6.82652941         16.81469932         24.32476669
  242  1          5.06075276         19.20225155         24.56443372
  243  1          1.55208110         15.62174666         17.57820498
  244  1          2.16148403         17.44295906         13.95034769
  245  1          3.64362234         19.93719042         18.67561882
  246  1          1.78979057         14.23346034         20.04521738
  247  1         11.49392913         21.29388320         17.08935470
  248  1          0.88441155         15.22876290         13.02774552
  249  1         11.25366646         16.78203556         13.44320050
  250  1          3.16520789         22.00733677         23.01863851
  251  1          9.93404465         20.78240412         14.86775734
  252  1         11.65523846         21.48678465         12.76339525
  253  1          8.44548786         14.28749774         18.19185581
  254  1          7.97213486         16.78927775         19.42996574
  255  1         11.22643639         15.89040791         22.20750684
  256  1          1.37506252         16.12676302         22.16738341
  257  1         21.64008327          0.27562174          7.98873221
  258  1         21.34563726         11.25748273          4.33493694
  259  1         14.48098948          6.63600795          9.81174941
  260  1         13.43766718          0.30103613          2.30015369
  261  1         18.94949390          9.01345844         11.27920918
  262  1         13.13738010          6.78588141         11.94054451
  263  1         23.96799794          6.02568137          5.68473240
  264  1         13.55937149          1.08693167         10.80575706
  265  1         13.41895091          7.53371679          7.40956435
  266  1         18.35605455          9.12220022          7.38641400
  267  1         17.98513936         10.72254557          9.52666757
  268  1         13.18949394         10.31676436          8.75023568
  269  1         16.94610165         11.11353109          0.94646177
  270  1         16.50279272          7.19239297          2.50208524
  271  1         22.99313053          0.88120811          1.95870023
  272  1         18.54420427          9.14817932          4.46929607
  273  1         20.53450667          6.54802335          5.30270879
  274  1         15.56597557          9.60998803          3.20231016
  275  1         20.38274272          1.31313119          3.30323332
  276  1         13.37791905         10.67025487          4.29494133
  277  1         14.52469752         10.50822207          6.40649557
  278  1         21.60745710         11.00880088          1.03823145
  279  1         17.64680253          1.04666313          2.37431040
  280  1         19.51316490          0.63835769          0.07813677
  281  1         22.74977258          5.23742378          7.94491348
  282  1         19.05959919          3.33446481          9.12080270
  283  1         16.76488961          3.69883482          1.06169211
  284  1         21.06479717          3.45497069          1.63559253
  285  1         16.34440321          2.76734315         11.09857442
  286  1         21.15235538          8.99646172          9.02247729
  287  1         19.04931755          9.94682406          1.87543161
  288  1         23.75614695          0.79019657          4.83593517
  289  1         19.82370163          0.53963556          9.79479533
  290  1         24.29138776          0.39667450          8.29281836
  291  1         16.93785630          5.34161432         10.06685863
  292  1         16.15790954          0.02310608          5.64861032
  293  1         21.65782614          9.48253213          6.36500518
  294  1         14.39340106          5.94451920          4.35541181
  295  1         15.19616975          1.95801534          2.90131299
  296  1         22.42442550          1.47462124         11.60542117
  297  1         17.94326752          6.33843637          7.77637081
  298  1         24.01139945          3.89029897          3.90398032
  299  1         22.75379968         10.88230128         10.97664256
  300  1         17.33600882          2.10397855          7.45152248
  301  1         20.49689869          6.31538660          2.32855038
  302  1         15.89347941          0.13544863         10.08024841
  303  1         23.49609233          7.35487282          9.31840523
  304  1         13.60799149         11.10890329         12.00475654
  305  1         19.21115941          4.43006932         11.94013669
  306  1         17.44538276          6.81762155         12.17980372
  307  1         13.93671110          3.23711666          5.19357498
  308  1         14.54611403          5.05832906          1.56571769
  309  1         16.02825234          7.55256042          6.29098882
  310  1         14.17442057          1.84883034          7.66058738
  311  1         23.87855913          8.90925320          4.70472470
  312  1         13.26904155          2.84413290          0.64311552
  313  1         23.63829646          4.39740556          1.05857050
  314  1         15.54983789          9.62270677         10.63400851
  315  1         22.31867465          8.39777412          2.48312734
  316  1         24.03986846          9.10215465          0.37876525
  317  1         20.83011786          1.90286774          5.80722581
  318  1         20.35676486          4.40464775          7.04533574
  319  1         23.61106639          3.50577791          9.82287684
  320  1         13.75969252          3.74213302          9.78275341
  321  1         21.64008327          0.27562174         20.37336221
  322  1         21.34563726         11.25748273         16.71956694
  323  1         14.48098948          6.63600795         22.19637941
  324  1         13.43766718          0.30103613         14.68478369
  325  1         18.94949390          9.01345844         23.66383918
  326  1         13.13738010          6.78588141         24.32517451
  327  1         23.96799794          6.02568137         18.06936240
  328  1         13.55937149          1.08693167         23.19038706
  329  1         13.41895091          7.53371679         19.79419435
  330  1         18.35605455          9.12220022         19.77104400
  331  1         17.98513936         10.72254557         21.91129757
  332  1         13.18949394         10.31676436         21.13486568
  333  1         16.94610165         11.11353109         13.33109177
  334  1         16.50279272          7.19239297         14.88671524
  335  1         22.99313053          0.88120811         14.34333023
  336  1         18.54420427          9.14817932         16.85392607
  337  1         20.53450667          6.54802335         17.68733879
  338  1         15.56597557          9.60998803         15.58694016
  339  1         20.38274272          1.31313119         15.68786332
  340  1         13.37791905         10.67025487         16.67957133
  341  1         14.52469752         10.50822207         18.79112557
  342  1         21.60745710         11.00880088         13.42286145
  343  1         17.64680253          1.04666313         14.75894040
  344  1         19.51316490          0.63835769         12.46276677
  345  1         22.74977258          5.23742378         20.32954348
  346  1         19.05959919          3.33446481         21.50543270
  347  1         16.76488961          3.69883482         13.44632211
  348  1         21.06479717          3.45497069         14.02022253
  349  1         16.34440321          2.76734315         23.48320442
  350  1         21.15235538          8.99646172         21.40710729
  351  1         19.04931755          9.94682406         14.26006161
  352  1         23.75614695          0.79019657         17.22056517
  353  1         19.82370163          0.53963556         22.17942533
  354  1         24.29138776          0.39667450         20.67744836
  355  1         16.93785630          5.34161432         22.45148863
  356  1         16.15790954          0.02310608         18.03324032
  357  1         21.65782614          9.48253213         18.74963518
  358  1         14.39340106          5.94451920         16.74004181
  359  1         15.19616975          1.95801534         15.28594299
  360  1         22.42442550          1.47462124         23.99005117
  361  1         17.94326752          6.33843637         20.16100081
  362  1         24.01139945          3.89029897         16.28861032
  363  1         22.75379968         10.88230128         23.36127256
  364  1         17.33600882          2.10397855         19.83615248
  365  1         20.49689869          6.31538660         14.71318038
  366  1         15.89347941          0.13544863         22.46487841
  367  1         23.49609233          7.35487282         21.70303523
  368  1         13.60799149         11.10890329         24.38938654
  369  1         19.21115941          4.43006932         24.32476669
  370  1         17.44538276          6.81762155         24.56443372
  371  1         13.93671110          3.23711666         17.57820498
  372  1         14.54611403          5.05832906         13.95034769
  373  1         16.02825234          7.55256042         18.67561882
  374  1         14.17442057          1.84883034         20.04521738
  375  1         23.87855913          8.90925320         17.08935470
  376  1         13.26904155          2.84413290         13.02774552
  377  1         23.63829646          4.39740556         13.44320050
  378  1         15.54983789          9.62270677         23.01863851
  379  1         22.31867465          8.39777412         14.86775734
  380  1         24.03986846          9.10215465         12.76339525
  381  1         20.83011786          1.90286774         18.19185581
  382  1         20.35676486          4.40464775         19.42996574
  383  1         23.61106639          3.50577791         22.20750684
  384  1         13.75969252          3.74213302         22.16738341
  385  1         21.64008327         12.66025174          7.98873221
  386  1         21.34563726         23.64211273          4.33493694
  387  1         14.48098948         19.02063795          9.81174941
  388  1         13.43766718         12.68566613          2.30015369
  389  1         18.94949390         21.39808844         11.27920918
  390  1         13.13738010         19.17051141         11.94054451
  391  1         23.96799794         18.41031137          5.68473240
  392  1         13.55937149         13.47156167         10.80575706
  393  1         13.41895091         19.91834679          7.40956435
  394  1         18.35605455         21.50683022          7.38641400
  395  1         17.98513936         23.10717557          9.52666757
  396  1         13.18949394         22.70139436          8.75023568
  397  1         16.94610165         23.49816109          0.94646177
  398  1         16.50279272         19.57702297          2.50208524
  399  1         22.99313053         13.26583811          1.95870023
  400  1         18.54420427         21.53280932          4.46929607
  401  1         20.53450667         18.93265335          5.30270879
  402  1         15.56597557         21.99461803          3.20231016
  403  1         20.38274272         13.69776119          3.30323332
  404  1         13.37791905         23.05488487          4.29494133
  405  1         14.52469752         22.89285207          6.40649557
  406  1         21.60745710         23.39343088          1.03823145
  407  1         17.64680253         13.43129313          2.37431040
  408  1         19.51316490         13.02298769          0.07813677
  409  1         22.74977258         17.62205378          7.94491348
  410  1         19.05959919         15.71909481          9.12080270
  411  1         16.76488961         16.08346482          1.06169211
  412  1         21.06479717         15.83960069          1.63559253
  413  1         16.34440321         15.15197315         11.09857442
  414  1         21.15235538         21.38109172          9.02247729
  415  1         19.04931755         22.33145406          1.87543161
  416  1         23.75614695         13.17482657          4.83593517
  417  1         19.82370163         12.92426556          9.79479533
  418  1         24.29138776         12.78130450          8.29281836
  419  1         16.93785630         17.72624432         10.06685863
  420  1         16.15790954         12.40773608          5.64861032
  421  1         21.65782614         21.86716213          6.36500518
  422  1         14.39340106         18.32914920          4.35541181
  423  1         15.19616975         14.34264534          2.90131299
  424  1         22.42442550         13.85925124         11.60542117
  425  1         17.94326752         18.72306637          7.77637081
  426  1         24.01139945         16.27492897          3.90398032
  427  1         22.75379968         23.26693128         10.97664256
  428  1         17.33600882         14.48860855          7.45152248
  429  1         20.49689869         18.70001660          2.32855038
  430  1         15.89347941         12.52007863         10.08024841
  431  1         23.49609233         19.73950282          9.31840523